/*--------------------------------*- C++ -*----------------------------------*\
  =========                 |
  \\      /  F ield         | OpenFOAM: The Open Source CFD Toolbox
   \\    /   O peration     | Website:  https://openfoam.org
    \\  /    A nd           | Version:  8
     \\/     M anipulation  |
\*---------------------------------------------------------------------------*/
FoamFile
{
    version     2.0;
    format      ascii;
    class       volScalarField;
    location    "0";
    object      thickness;
}
// * * * * * * * * * * * * * * * * * * * * * * * * * * * * * * * * * * * * * //

dimensions      [0 0 0 0 0 0 0];

internalField   uniform 0;

boundaryField
{
    up
    {
        type            empty;
    }
    down
    {
        type            empty;
    }
    defaultFaces
    {
        type            empty;
    }
    geometry_defaultFaces
    {
        type            fixedValue;
        value           nonuniform List<scalar> 0();
    }
    geometry_top
    {
        type            fixedValue;
        value           nonuniform List<scalar> 
2232
(
0.00901674
0.00750001
0.00749958
0.00902399
0.00749963
0.00749953
0.00749958
0.0125146
0.00901739
0.0141937
0.0147363
0.0125102
0.0149127
0.0150431
0.0149596
0.0150516
0.0149136
0.0150431
0.0149597
0.0150516
0.0149136
0.0150431
0.0149597
0.0150516
0.0149136
0.0150431
0.0149597
0.0150516
0.0149136
0.0150431
0.0149597
0.0150516
0.0149136
0.0150431
0.0149597
0.0150516
0.0149136
0.0150431
0.0149597
0.0150516
0.0149136
0.0150431
0.0149597
0.0150516
0.0149136
0.0150431
0.0149597
0.0150516
0.0149136
0.0150431
0.0149597
0.0150516
0.0149136
0.0150431
0.0149597
0.0150516
0.0149136
0.0150431
0.0149597
0.0150516
0.0149136
0.0150431
0.0149597
0.0150516
0.0149136
0.0150431
0.0149597
0.0150516
0.0149136
0.0150431
0.0149597
0.0150516
0.0149136
0.0150431
0.0149597
0.0150516
0.0149136
0.0150431
0.0149597
0.0150516
0.0149136
0.0150431
0.0149597
0.0150516
0.0149136
0.0150431
0.0149597
0.0150516
0.0149136
0.0150431
0.0149597
0.0150516
0.0149136
0.0150431
0.0149597
0.0150516
0.0149136
0.0150431
0.0149597
0.0150516
0.0149136
0.0150431
0.0149597
0.0150516
0.0149136
0.0150431
0.0149597
0.0150516
0.0149136
0.0150431
0.0149597
0.0150516
0.0149136
0.0150431
0.0149597
0.0150516
0.0149136
0.0150431
0.0149597
0.0150516
0.0149136
0.0150431
0.0149597
0.0150516
0.0149136
0.0150431
0.0149597
0.0150516
0.0149136
0.0150431
0.0149597
0.0150516
0.0149136
0.0150431
0.0149597
0.0150516
0.0149136
0.0150431
0.0149597
0.0150516
0.0149136
0.0150431
0.0149597
0.0150516
0.0149136
0.0150431
0.0149597
0.0150516
0.0149136
0.0150431
0.0149597
0.0150516
0.0149136
0.0150431
0.0149597
0.0150516
0.0149136
0.0150431
0.0149597
0.0150516
0.0149136
0.0150431
0.0149597
0.0150516
0.0149136
0.0150431
0.0149597
0.0150516
0.0149136
0.0150431
0.0149597
0.0150516
0.0149136
0.0150431
0.0149597
0.0150516
0.0149136
0.0150431
0.0149597
0.0150516
0.0149136
0.0150431
0.0149597
0.0150516
0.0149136
0.0150431
0.0149597
0.0150516
0.0149136
0.0150862
0.0149914
0.0150539
0.0149999
0.0150862
0.0149914
0.0150539
0.0149999
0.0150431
0.0149597
0.0150516
0.0149136
0.0150862
0.0149914
0.0150539
0.0149999
0.0150862
0.0149914
0.0150539
0.0149999
0.0150431
0.0149597
0.0150516
0.0149136
0.0150862
0.0149914
0.0150539
0.0149999
0.0150862
0.0149914
0.0150539
0.0149999
0.0150431
0.0149597
0.0150516
0.0149136
0.0150862
0.0149914
0.0150539
0.0149999
0.0150862
0.0149914
0.0150539
0.0149999
0.0150431
0.0149597
0.0150516
0.0149136
0.0150862
0.0149914
0.0150539
0.0149999
0.0150862
0.0149914
0.0150539
0.0149999
0.0150431
0.0149597
0.0150516
0.0149136
0.0150862
0.0149914
0.0150539
0.0149999
0.0150862
0.0149914
0.0150539
0.0149999
0.0150431
0.0149597
0.0150516
0.0149136
0.0150862
0.0149914
0.0150539
0.0149999
0.0150862
0.0149914
0.0150539
0.0149999
0.0150431
0.0149597
0.0150516
0.0149136
0.0150862
0.0149914
0.0150539
0.0149999
0.0150862
0.0149914
0.0150539
0.0149999
0.0150431
0.0149597
0.0150516
0.0149136
0.0150862
0.0149914
0.0150539
0.0149999
0.0150862
0.0149914
0.0150539
0.0149999
0.0150431
0.0149597
0.0150516
0.0149136
0.0150862
0.0149914
0.0150539
0.0149999
0.0150862
0.0149914
0.0150539
0.0149999
0.0150431
0.0149597
0.0150516
0.0149136
0.0150862
0.0149914
0.0150539
0.0149999
0.0150862
0.0149914
0.0150539
0.0149999
0.0150431
0.0149597
0.0150516
0.0149136
0.0150862
0.0149914
0.0150539
0.0149999
0.0150862
0.0149914
0.0150539
0.0149999
0.0150431
0.0149597
0.0150516
0.0149136
0.0150862
0.0149914
0.0150539
0.0149999
0.0150862
0.0149914
0.0150539
0.0149999
0.0150431
0.0149597
0.0150516
0.0149136
0.0150862
0.0149914
0.0150539
0.0149999
0.0150862
0.0149914
0.0150539
0.0149999
0.0150431
0.0149597
0.0150516
0.0149136
0.0150862
0.0149914
0.0150539
0.0149999
0.0150862
0.0149914
0.0150539
0.0149999
0.0150431
0.0149597
0.0150516
0.0149136
0.0150862
0.0149914
0.0150539
0.0149999
0.0150862
0.0149914
0.0150539
0.0149999
0.0150431
0.0149597
0.0150516
0.0149136
0.0150862
0.0149914
0.0150539
0.0149999
0.0150862
0.0149914
0.0150539
0.0149999
0.0150431
0.0149597
0.0150516
0.0149136
0.0150862
0.0149914
0.0150539
0.0149999
0.0150862
0.0149914
0.0150539
0.0149999
0.0150431
0.0149597
0.0150516
0.0149136
0.0150862
0.0149914
0.0150539
0.0149999
0.0150862
0.0149914
0.0150539
0.0149999
0.0150431
0.0149597
0.0150516
0.0149136
0.0150862
0.0149914
0.0150539
0.0149999
0.0150862
0.0149914
0.0150539
0.0149999
0.0150431
0.0149597
0.0150516
0.0149136
0.0150862
0.0149914
0.0150539
0.0149999
0.0150862
0.0149914
0.0150539
0.0149999
0.0150431
0.0149597
0.0150516
0.0149136
0.0150862
0.0149914
0.0150539
0.0149999
0.0150862
0.0149914
0.0150539
0.0149999
0.0150431
0.0149597
0.0150516
0.0149136
0.0150862
0.0149914
0.0150539
0.0149999
0.0150862
0.0149914
0.0150539
0.0149999
0.0150431
0.0149597
0.0150516
0.0149136
0.0150862
0.0149914
0.0150539
0.0149999
0.0150862
0.0149914
0.0150539
0.0149999
0.0150431
0.0149597
0.0150516
0.0149136
0.0150862
0.0149914
0.0150539
0.0149999
0.0150862
0.0149914
0.0150539
0.0149999
0.0150431
0.0149597
0.0150516
0.0149136
0.0150862
0.0149914
0.0150539
0.0149999
0.0150862
0.0149914
0.0150539
0.0149999
0.0150431
0.0149597
0.0150516
0.0149136
0.0150862
0.0149914
0.0150539
0.0149999
0.0150862
0.0149914
0.0150539
0.0149999
0.0150431
0.0149597
0.0150516
0.0149136
0.0150862
0.0149914
0.0150539
0.0149999
0.0150862
0.0149914
0.0150539
0.0149999
0.0150431
0.0149597
0.0150516
0.0149136
0.0150862
0.0149914
0.0150539
0.0149999
0.0150862
0.0149914
0.0150539
0.0149999
0.0150431
0.0149597
0.0150516
0.0149136
0.0150862
0.0149914
0.0150539
0.0149999
0.0150862
0.0149914
0.0150539
0.0149999
0.0150431
0.0149597
0.0150516
0.0149136
0.0150862
0.0149914
0.0150539
0.0149999
0.0150862
0.0149914
0.0150539
0.0149999
0.0150431
0.0149597
0.0150516
0.0149136
0.0150862
0.0149914
0.0150539
0.0149999
0.0150862
0.0149914
0.0150539
0.0149999
0.0150431
0.0149597
0.0150516
0.0149136
0.0150862
0.0149914
0.0150539
0.0149999
0.0150862
0.0149914
0.0150539
0.0149999
0.0150431
0.0149597
0.0150516
0.0149136
0.0150862
0.0149914
0.0150539
0.0149999
0.0150862
0.0149914
0.0150539
0.0149999
0.0150431
0.0149597
0.0150516
0.0149136
0.0150862
0.0149914
0.0150539
0.0149999
0.0150862
0.0149914
0.0150539
0.0149999
0.0150431
0.0149597
0.0150516
0.0149136
0.0150862
0.0149914
0.0150539
0.0149999
0.0150862
0.0149914
0.0150539
0.0149999
0.0150431
0.0149597
0.0150516
0.0149136
0.0150862
0.0149914
0.0150539
0.0149999
0.0150862
0.0149914
0.0150539
0.0149999
0.0150431
0.0149597
0.0150516
0.0149136
0.0150862
0.0149914
0.0150539
0.0149999
0.0150862
0.0149914
0.0150539
0.0149999
0.0150431
0.0149597
0.0150516
0.0149136
0.0150862
0.0149914
0.0150539
0.0149999
0.0150862
0.0149914
0.0150539
0.0149999
0.0150431
0.0149597
0.0150516
0.0149136
0.0150862
0.0149914
0.0150539
0.0149999
0.0150862
0.0149914
0.0150539
0.0149999
0.0150431
0.0149597
0.0150516
0.0149136
0.0150862
0.0149914
0.0150539
0.0149999
0.0150862
0.0149914
0.0150539
0.0149999
0.0150431
0.0149597
0.0150516
0.0149136
0.0150862
0.0149914
0.0150539
0.0149999
0.0150862
0.0149914
0.0150539
0.0149999
0.0150862
0.0149914
0.0150539
0.0149999
0.0150863
0.0149909
0.0150537
0.0149998
0.0143013
0.0124976
0.0125959
0.014142
0.015043
0.0149555
0.0150487
0.0149127
0.0150431
0.0149597
0.0150516
0.0149136
0.0150431
0.0149597
0.0150516
0.0149136
0.0150431
0.0149597
0.0150516
0.0149136
0.0150431
0.0149597
0.0150516
0.0149136
0.0150431
0.0149597
0.0150516
0.0149136
0.0150431
0.0149597
0.0150516
0.0149136
0.0150431
0.0149597
0.0150516
0.0149136
0.0150431
0.0149597
0.0150516
0.0149136
0.0150431
0.0149597
0.0150516
0.0149136
0.0150431
0.0149597
0.0150516
0.0149136
0.0150431
0.0149597
0.0150516
0.0149136
0.0150431
0.0149597
0.0150516
0.0149136
0.0150431
0.0149597
0.0150516
0.0149136
0.0150431
0.0149597
0.0150516
0.0149136
0.0150431
0.0149597
0.0150516
0.0149136
0.0150431
0.0149597
0.0150516
0.0149136
0.0150431
0.0149597
0.0150516
0.0149136
0.0150431
0.0149597
0.0150516
0.0149136
0.0150431
0.0149597
0.0150516
0.0149136
0.0150431
0.0149597
0.0150516
0.0149136
0.0150431
0.0149597
0.0150516
0.0149135
0.00749891
0.00902866
0.00903747
0.00749979
0.0074991
0.00901713
0.0090273
0.00750003
0.0148746
0.0149282
0.0150246
0.014734
0.0143232
0.0124892
0.0125862
0.0141858
0.0149148
0.0149592
0.0150262
0.0148144
0.0150432
0.0149597
0.0150517
0.0149134
0.0150864
0.0149873
0.0150507
0.0149994
0.0150864
0.0149914
0.015054
0.0149998
0.0150431
0.0149597
0.0150516
0.0149136
0.0150862
0.0149914
0.0150539
0.0149999
0.0150862
0.0149914
0.0150539
0.0149999
0.0150431
0.0149597
0.0150516
0.0149136
0.0150862
0.0149914
0.0150539
0.0149999
0.0150862
0.0149914
0.0150539
0.0149999
0.0150431
0.0149597
0.0150516
0.0149136
0.0150862
0.0149914
0.0150539
0.0149999
0.0150862
0.0149914
0.0150539
0.0149999
0.0150431
0.0149597
0.0150516
0.0149136
0.0150862
0.0149914
0.0150539
0.0149999
0.0150862
0.0149914
0.0150539
0.0149999
0.0150431
0.0149597
0.0150516
0.0149136
0.0150862
0.0149914
0.0150539
0.0149999
0.0150862
0.0149914
0.0150539
0.0149999
0.0150431
0.0149597
0.0150516
0.0149136
0.0150862
0.0149914
0.0150539
0.0149999
0.0150862
0.0149914
0.0150539
0.0149999
0.0150431
0.0149597
0.0150516
0.0149136
0.0150862
0.0149914
0.0150539
0.0149999
0.0150862
0.0149914
0.0150539
0.0149999
0.0150431
0.0149597
0.0150516
0.0149136
0.0150862
0.0149914
0.0150539
0.0149999
0.0150862
0.0149914
0.0150539
0.0149999
0.0150431
0.0149597
0.0150516
0.0149136
0.0150862
0.0149914
0.0150539
0.0149999
0.0150862
0.0149914
0.0150539
0.0149999
0.0150431
0.0149597
0.0150516
0.0149136
0.0150862
0.0149914
0.0150539
0.0149999
0.0150862
0.0149914
0.0150539
0.0149999
0.0150431
0.0149597
0.0150516
0.0149136
0.0150862
0.0149914
0.0150539
0.0149999
0.0150862
0.0149914
0.0150539
0.0149999
0.0150431
0.0149597
0.0150516
0.0149136
0.0150862
0.0149914
0.0150539
0.0149999
0.0150862
0.0149914
0.0150539
0.0149999
0.0150431
0.0149597
0.0150516
0.0149136
0.0150862
0.0149914
0.0150539
0.0149999
0.0150862
0.0149914
0.0150539
0.0149999
0.0150431
0.0149597
0.0150516
0.0149136
0.0150862
0.0149914
0.0150539
0.0149999
0.0150862
0.0149914
0.0150539
0.0149999
0.0150431
0.0149597
0.0150516
0.0149136
0.0150862
0.0149914
0.0150539
0.0149999
0.0150862
0.0149914
0.0150539
0.0149999
0.0150431
0.0149597
0.0150516
0.0149136
0.0150862
0.0149914
0.0150539
0.0149999
0.0150862
0.0149914
0.0150539
0.0149999
0.0150431
0.0149597
0.0150516
0.0149136
0.0150862
0.0149914
0.0150539
0.0149999
0.0150862
0.0149914
0.0150539
0.0149999
0.0150431
0.0149597
0.0150516
0.0149136
0.0150862
0.0149914
0.0150539
0.0149999
0.0150862
0.0149914
0.0150539
0.0149999
0.0150431
0.0149597
0.0150516
0.0149136
0.0150862
0.0149914
0.0150539
0.0149999
0.0150862
0.0149914
0.0150539
0.0149999
0.0150431
0.0149597
0.0150516
0.0149136
0.0150862
0.0149914
0.0150539
0.0149999
0.0150862
0.0149915
0.0150539
0.0149999
0.0150058
0.0150601
0.0150516
0.0149596
0.0150863
0.0149915
0.0150539
0.0149999
0.014983
0.0150216
0.0150539
0.0149914
0.00749893
0.00902874
0.00903736
0.0074998
0.00749912
0.00902705
0.00750004
0.0125666
0.0142852
0.0141695
0.0148748
0.0149281
0.0150246
0.0147339
0.015043
0.0149555
0.0150487
0.00749895
0.00749925
0.00749934
0.00749937
0.00749999
0.00749951
0.00749915
0.00749959
0.00749968
0.00749967
0.00750022
0.00749981
0.0150431
0.0149597
0.0150516
0.0149135
0.0150164
0.014955
0.0150488
0.0148815
0.00905313
0.0125402
0.0126059
0.00902305
0.0150432
0.0149592
0.0150516
0.0149134
0.0148767
0.0141931
0.0142936
0.0147358
0.0149171
0.0142131
0.0142895
0.0148166
0.00749997
0.00749945
0.00905068
0.012516
0.0125797
0.00901815
0.00750002
0.00749999
0.00749983
0.00749979
0.00749959
0.00749964
0.00749954
0.00749959
0.0148766
0.0142936
0.00749997
0.00749946
0.00905327
0.0125418
0.0126061
0.00904997
0.0125786
0.00749994
0.00749973
0.00749966
0.00749952
0.00749932
0.00749942
0.00749998
0.00749983
0.00749978
0.0150431
0.0149594
0.0150517
0.0149135
0.0150374
0.0149553
0.0150488
0.0149243
0.0149166
0.0142125
0.0142891
0.0148164
0.015038
0.0149871
0.015051
0.0149254
0.0150431
0.01496
0.0150517
0.0149135
0.0125212
0.0125625
0.014287
0.0142031
0.0150864
0.0149873
0.0150507
0.0149994
0.0150429
0.0149483
0.0150322
0.014914
0.0150431
0.0149598
0.0150517
0.0149136
0.0150431
0.0149597
0.0150516
0.0149136
0.0150431
0.0149597
0.0150516
0.0149136
0.0150431
0.0149597
0.0150516
0.0149136
0.0150431
0.0149597
0.0150516
0.0149136
0.0150431
0.0149597
0.0150516
0.0149136
0.0150431
0.0149597
0.0150516
0.0149136
0.0150431
0.0149597
0.0150516
0.0149136
0.0150431
0.0149597
0.0150516
0.0149136
0.0150431
0.0149597
0.0150516
0.0149136
0.0150431
0.0149597
0.0150516
0.0149136
0.0150431
0.0149597
0.0150516
0.0149136
0.0150431
0.0149597
0.0150516
0.0149136
0.0150431
0.0149597
0.0150516
0.0149136
0.0150431
0.0149597
0.0150516
0.0149136
0.0150431
0.0149597
0.0150516
0.0149136
0.0150431
0.0149597
0.0150516
0.0149136
0.0150431
0.0149597
0.0150516
0.0149136
0.0150431
0.0149596
0.0150516
0.0149136
0.0150431
0.0149597
0.0150516
0.0149136
0.0150431
0.0149597
0.0150516
0.0149136
0.0150431
0.0149597
0.0150516
0.0149136
0.0150431
0.0149597
0.0150516
0.0149136
0.0150431
0.0149597
0.0150516
0.0149136
0.0150431
0.0149597
0.0150516
0.0149136
0.0150431
0.0149597
0.0150516
0.0149136
0.0150431
0.0149597
0.0150516
0.0149136
0.0150431
0.0149597
0.0150516
0.0149136
0.0150431
0.0149597
0.0150516
0.0149136
0.0150431
0.0149597
0.0150516
0.0149136
0.0150431
0.0149597
0.0150516
0.0149136
0.0150431
0.0149597
0.0150516
0.0149136
0.0150431
0.0149597
0.0150516
0.0149136
0.0150431
0.0149597
0.0150516
0.0149136
0.0150431
0.0149597
0.0150516
0.0149136
0.0150431
0.0149597
0.0150516
0.0149136
0.0150431
0.0149597
0.0150516
0.0149136
0.0150431
0.0149597
0.0150516
0.0149136
0.0150431
0.0149597
0.0150516
0.0149136
0.0150431
0.0149597
0.0150516
0.0149136
0.0150431
0.0149597
0.0150516
0.0149136
0.0150431
0.0149597
0.0150516
0.0149136
0.0150431
0.0149597
0.0150516
0.0149136
0.0150862
0.0149914
0.0150539
0.0149999
0.0150862
0.0149914
0.0150539
0.0149999
0.0150431
0.0149597
0.0150516
0.0149136
0.0150862
0.0149914
0.0150539
0.0149999
0.0150862
0.0149914
0.0150539
0.0149999
0.0150431
0.0149597
0.0150516
0.0149136
0.0150862
0.0149914
0.0150539
0.0149999
0.0150862
0.0149914
0.0150539
0.0149999
0.0150431
0.0149597
0.0150516
0.0149136
0.0150862
0.0149914
0.0150539
0.0149999
0.0150862
0.0149914
0.0150539
0.0149999
0.0150431
0.0149597
0.0150516
0.0149136
0.0150862
0.0149914
0.0150539
0.0149999
0.0150862
0.0149914
0.0150539
0.0149999
0.0150431
0.0149597
0.0150516
0.0149136
0.0150862
0.0149914
0.0150539
0.0149999
0.0150862
0.0149914
0.0150539
0.0149999
0.0150431
0.0149597
0.0150516
0.0149136
0.0150862
0.0149914
0.0150539
0.0149999
0.0150862
0.0149914
0.0150539
0.0149999
0.0150431
0.0149597
0.0150516
0.0149136
0.0150862
0.0149914
0.0150539
0.0149999
0.0150862
0.0149914
0.0150539
0.0149999
0.0150431
0.0149597
0.0150516
0.0149136
0.0150862
0.0149914
0.0150539
0.0149999
0.0150862
0.0149914
0.0150539
0.0149999
0.0150431
0.0149597
0.0150516
0.0149136
0.0150862
0.0149914
0.0150539
0.0149999
0.0150862
0.0149914
0.0150539
0.0149999
0.0150431
0.0149597
0.0150516
0.0149136
0.0150862
0.0149914
0.0150539
0.0149999
0.0150862
0.0149914
0.0150539
0.0149999
0.0150431
0.0149597
0.0150516
0.0149136
0.0150862
0.0149914
0.0150539
0.0149999
0.0150862
0.0149914
0.0150539
0.0149999
0.0150431
0.0149597
0.0150516
0.0149136
0.0150862
0.0149914
0.0150539
0.0149999
0.0150862
0.0149914
0.0150539
0.0149999
0.0150431
0.0149597
0.0150516
0.0149136
0.0150862
0.0149914
0.0150539
0.0149999
0.0150862
0.0149914
0.0150539
0.0149999
0.0150431
0.0149597
0.0150516
0.0149136
0.0150862
0.0149914
0.0150539
0.0149999
0.0150862
0.0149914
0.0150539
0.0149999
0.0150431
0.0149597
0.0150516
0.0149136
0.0150862
0.0149914
0.0150539
0.0149999
0.0150862
0.0149914
0.0150539
0.0149999
0.0150431
0.0149597
0.0150516
0.0149136
0.0150862
0.0149914
0.0150539
0.0149999
0.0150862
0.0149914
0.0150539
0.0149999
0.0150431
0.0149597
0.0150516
0.0149136
0.0150862
0.0149914
0.0150539
0.0149999
0.0150862
0.0149914
0.0150539
0.0149999
0.0150431
0.0149597
0.0150516
0.0149136
0.0150862
0.0149914
0.0150539
0.0149999
0.0150862
0.0149914
0.0150539
0.0149999
0.0150431
0.0149597
0.0150516
0.0149136
0.0150862
0.0149914
0.0150539
0.0149999
0.0150862
0.0149914
0.0150539
0.0149999
0.0150431
0.0149597
0.0150516
0.0149136
0.0150862
0.0149914
0.0150539
0.0149999
0.0150862
0.0149914
0.0150539
0.0149999
0.0150431
0.0149597
0.0150516
0.0149136
0.0150862
0.0149914
0.0150539
0.0149999
0.0150862
0.0149914
0.0150539
0.0149999
0.0150431
0.0149597
0.0150516
0.0149136
0.0150862
0.0149914
0.0150539
0.0149999
0.0150862
0.0149914
0.0150539
0.0149999
0.0150431
0.0149597
0.0150516
0.0149136
0.0150862
0.0149914
0.0150539
0.0149999
0.0150862
0.0149914
0.0150539
0.0149999
0.0150863
0.0149914
0.015054
0.0149999
0.0150864
0.014991
0.0150538
0.0149998
0.0150596
0.0149872
0.0150512
0.0149679
0.0149149
0.0149592
0.0150262
0.0148142
0.0150863
0.0149913
0.0150538
0.0149998
0.015043
0.0149599
0.0150516
0.0149138
0.0150858
0.0150031
0.0150731
0.0149999
0.015086
0.0149914
0.0150538
0.0149999
0.0150431
0.0149597
0.0150516
0.0149136
0.0150862
0.0149914
0.0150539
0.0149999
0.0150862
0.0149914
0.0150539
0.0149999
0.0150431
0.0149597
0.0150516
0.0149136
0.0150862
0.0149914
0.0150539
0.0149999
0.0150862
0.0149914
0.0150539
0.0149999
0.0150431
0.0149597
0.0150516
0.0149136
0.0150862
0.0149914
0.0150539
0.0149999
0.0150862
0.0149914
0.0150539
0.0149999
0.0150431
0.0149597
0.0150516
0.0149136
0.0150862
0.0149914
0.0150539
0.0149999
0.0150862
0.0149914
0.0150539
0.0149999
0.0150431
0.0149597
0.0150516
0.0149136
0.0150862
0.0149914
0.0150539
0.0149999
0.0150862
0.0149914
0.0150539
0.0149999
0.0150431
0.0149597
0.0150516
0.0149136
0.0150862
0.0149914
0.0150539
0.0149999
0.0150862
0.0149914
0.0150539
0.0149999
0.0150431
0.0149597
0.0150516
0.0149136
0.0150862
0.0149914
0.0150539
0.0149999
0.0150862
0.0149914
0.0150539
0.0149999
0.0150431
0.0149597
0.0150516
0.0149136
0.0150862
0.0149914
0.0150539
0.0149999
0.0150862
0.0149914
0.0150539
0.0149999
0.0150431
0.0149597
0.0150516
0.0149136
0.0150862
0.0149914
0.0150539
0.0149999
0.0150862
0.0149914
0.0150539
0.0149999
0.0150431
0.0149597
0.0150516
0.0149136
0.0150862
0.0149914
0.0150539
0.0149999
0.0150862
0.0149914
0.0150539
0.0149999
0.0150431
0.0149597
0.0150516
0.0149136
0.0150862
0.0149914
0.0150539
0.0149999
0.0150862
0.0149914
0.0150539
0.0149999
0.0150431
0.0149597
0.0150516
0.0149136
0.0150862
0.0149914
0.0150539
0.0149999
0.0150862
0.0149914
0.0150539
0.0149999
0.0150431
0.0149597
0.0150516
0.0149136
0.0150862
0.0149914
0.0150539
0.0149999
0.0150862
0.0149914
0.0150539
0.0149999
0.0150431
0.0149597
0.0150516
0.0149136
0.0150862
0.0149914
0.0150539
0.0149999
0.0150862
0.0149914
0.0150539
0.0149999
0.0150431
0.0149597
0.0150516
0.0149136
0.0150862
0.0149914
0.0150539
0.0149999
0.0150862
0.0149914
0.0150539
0.0149999
0.0150431
0.0149597
0.0150516
0.0149136
0.0150862
0.0149914
0.0150539
0.0149999
0.0150862
0.0149914
0.0150539
0.0149999
0.0150431
0.0149597
0.0150516
0.0149136
0.0150862
0.0149914
0.0150539
0.0149999
0.0150862
0.0149914
0.0150539
0.0149999
0.0150431
0.0149596
0.0150516
0.0149136
0.0150862
0.0149914
0.0150539
0.0149999
0.0150862
0.0149914
0.0150539
0.0149999
0.00749994
0.00749973
0.00749965
0.00749952
0.00749931
0.00749941
0.0150058
0.0150601
0.0150516
0.0149596
0.0150431
0.0149597
0.0150516
0.0149136
0.0150431
0.0149597
0.0150516
0.0149136
0.0150431
0.0149597
0.0150516
0.0149136
0.0150431
0.0149597
0.0150516
0.0149136
0.0150431
0.0149597
0.0150516
0.0149136
0.0150431
0.0149597
0.0150516
0.0149136
0.0150431
0.0149597
0.0150516
0.0149136
0.0150431
0.0149597
0.0150516
0.0149136
0.0150431
0.0149597
0.0150516
0.0149136
0.0150431
0.0149597
0.0150516
0.0149136
0.0150431
0.0149597
0.0150516
0.0149136
0.0150431
0.0149597
0.0150516
0.0149136
0.0150431
0.0149597
0.0150516
0.0149136
0.0150431
0.0149597
0.0150516
0.0149136
0.0150431
0.0149597
0.0150516
0.0149136
0.0150431
0.0149597
0.0150516
0.0149136
0.0150431
0.0149597
0.0150516
0.0149136
0.0150431
0.0149597
0.0150516
0.0149136
0.0150431
0.0149597
0.0150516
0.0149135
0.0150431
0.0149597
0.0150516
0.0149135
0.014983
0.0150216
0.0150539
0.0149914
0.0150863
0.0149915
0.0150539
0.0149999
0.0150431
0.0149597
0.0150516
0.0149136
0.0150862
0.0149915
0.0150539
0.0149999
0.0150862
0.0149914
0.0150539
0.0149999
0.0150431
0.0149597
0.0150516
0.0149136
0.0150862
0.0149914
0.0150539
0.0149999
0.0150862
0.0149914
0.0150539
0.0149999
0.0150431
0.0149597
0.0150516
0.0149136
0.0150862
0.0149914
0.0150539
0.0149999
0.0150862
0.0149914
0.0150539
0.0149999
0.0150431
0.0149597
0.0150516
0.0149136
0.0150862
0.0149914
0.0150539
0.0149999
0.0150862
0.0149914
0.0150539
0.0149999
0.0150431
0.0149597
0.0150516
0.0149136
0.0150862
0.0149914
0.0150539
0.0149999
0.0150862
0.0149914
0.0150539
0.0149999
0.0150431
0.0149597
0.0150516
0.0149136
0.0150862
0.0149914
0.0150539
0.0149999
0.0150862
0.0149914
0.0150539
0.0149999
0.0150431
0.0149597
0.0150516
0.0149136
0.0150862
0.0149914
0.0150539
0.0149999
0.0150862
0.0149914
0.0150539
0.0149999
0.0150431
0.0149597
0.0150516
0.0149136
0.0150862
0.0149914
0.0150539
0.0149999
0.0150862
0.0149914
0.0150539
0.0149999
0.0150431
0.0149597
0.0150516
0.0149136
0.0150862
0.0149914
0.0150539
0.0149999
0.0150862
0.0149914
0.0150539
0.0149999
0.0150431
0.0149597
0.0150516
0.0149136
0.0150862
0.0149914
0.0150539
0.0149999
0.0150862
0.0149914
0.0150539
0.0149999
0.0150431
0.0149597
0.0150516
0.0149136
0.0150862
0.0149914
0.0150539
0.0149999
0.0150862
0.0149914
0.0150539
0.0149999
0.0150431
0.0149597
0.0150516
0.0149136
0.0150862
0.0149914
0.0150539
0.0149999
0.0150862
0.0149914
0.0150539
0.0149999
0.0150431
0.0149597
0.0150516
0.0149136
0.0150862
0.0149914
0.0150539
0.0149999
0.0150862
0.0149914
0.0150539
0.0149999
0.0150431
0.0149597
0.0150516
0.0149136
0.0150862
0.0149914
0.0150539
0.0149999
0.0150862
0.0149914
0.0150539
0.0149999
0.0150431
0.0149597
0.0150516
0.0149136
0.0150862
0.0149914
0.0150539
0.0149999
0.0150862
0.0149914
0.0150539
0.0149999
0.0150431
0.0149597
0.0150516
0.0149136
0.0150862
0.0149914
0.0150539
0.0149999
0.0150862
0.0149914
0.0150539
0.0149999
0.0150431
0.0149597
0.0150516
0.0149136
0.0150862
0.0149914
0.0150539
0.0149999
0.0150862
0.0149914
0.0150539
0.0149999
0.0150431
0.0149597
0.0150516
0.0149136
0.0150862
0.0149914
0.0150539
0.0149999
0.0150862
0.0149915
0.0150539
0.0149999
0.0150058
0.0150601
0.0150516
0.0149596
0.0150863
0.0149915
0.0150539
0.0149999
0.014983
0.0150216
0.0150539
0.0149914
0.00749895
0.00749924
0.00749934
0.00749936
0.00749999
0.00749951
0.00749914
0.00749958
0.00749968
0.00749966
0.00750022
0.0074998
)
;
    }
    geometry_inlet
    {
        type            fixedValue;
        value           nonuniform List<scalar> 
186
(
0.00752179
0.00749525
0.00752784
0.00748178
0.0075174
0.00749442
0.00753024
0.00748184
0.00760632
0.00749849
0.00753109
0.00755402
0.00757981
0.00749935
0.00752698
0.00752701
0.00963596
0.0127157
0.0127587
0.00916152
0.0148527
0.0143073
0.014328
0.0148403
0.00965717
0.0126935
0.0127422
0.00919546
0.00753805
0.00751296
0.0075267
0.00751489
0.00747676
0.00751533
0.00748655
0.00746328
0.00749338
0.00750708
0.00751175
0.00752548
0.00760804
0.00751217
0.00752465
0.00754014
0.00751292
0.00752206
0.0075169
0.00747673
0.00751306
0.00748207
0.00746322
0.00748659
0.00750905
0.00750564
0.00751324
0.00755402
0.00750607
0.0075124
0.015
0.0149997
0.0149997
0.015
0.0149758
0.0149964
0.014997
0.0149725
0.0148516
0.014295
0.0143163
0.0148381
0.0149755
0.0149963
0.0149969
0.014972
0.015
0.015
0.015
0.015
0.015
0.0149996
0.0149997
0.015
0.015
0.015
0.015
0.015
0.015
0.015
0.015
0.015
0.015
0.015
0.015
0.015
0.015
0.015
0.015
0.015
0.015
0.015
0.015
0.015
0.0148495
0.0149719
0.0149749
0.0148319
0.00749979
0.00752154
0.00749973
0.00752145
0.00906539
0.00911946
0.00749932
0.00749958
0.00747745
0.00749951
0.015
0.015
0.015
0.015
0.015
0.015
0.015
0.015
0.015
0.015
0.015
0.015
0.015
0.015
0.015
0.015
0.015
0.015
0.015
0.015
0.015
0.015
0.015
0.015
0.015
0.015
0.015
0.015
0.015
0.015
0.015
0.015
0.015
0.015
0.015
0.015
0.0149997
0.0149966
0.0149968
0.0149996
0.015
0.015
0.015
0.015
0.0149997
0.0149964
0.0149966
0.0149996
0.0143132
0.0126304
0.0126942
0.0142583
0.0148494
0.0149714
0.0149746
0.0148317
0.0143143
0.0126217
0.012678
0.0142607
0.00749989
0.00752163
0.00749982
0.00752155
0.00905671
0.00910558
0.00749932
0.00749958
0.00747749
0.00749953
)
;
    }
    geometry_outlet
    {
        type            fixedValue;
        value           nonuniform List<scalar> 
174
(
0.0150041
0.0150041
0.0150049
0.0150049
0.0150041
0.0150041
0.0150049
0.0150049
0.0150038
0.0150036
0.0150045
0.0150043
0.0148572
0.0143188
0.0148588
0.0143216
0.0132532
0.0145219
0.0129438
0.014406
0.0150021
0.0150036
0.0150017
0.0150042
0.0150041
0.0150041
0.0150049
0.0150049
0.0150041
0.0150041
0.0150049
0.0150049
0.00821795
0.00749992
0.00748423
0.00749997
0.00748415
0.0149981
0.0149981
0.0149985
0.0149985
0.0149981
0.0149982
0.0149985
0.0149986
0.0149982
0.0149948
0.0149986
0.0149948
0.0149681
0.0125825
0.0149687
0.0126116
0.00904992
0.00907041
0.0109203
0.0149113
0.00916614
0.0148467
0.00751178
0.00777245
0.00751177
0.00750796
0.00750002
0.00749943
0.00750002
0.00749939
0.00750018
0.00749966
0.0074998
0.00750013
0.00911887
0.00749964
0.00749939
0.00749972
0.00749926
0.00749997
0.00749987
0.00749985
0.00749999
0.00909677
0.00749956
0.00749969
0.00749962
0.00749943
0.00749978
0.00749972
0.00749974
0.00749971
0.0149864
0.0149983
0.0149735
0.0149986
0.0149982
0.0149981
0.0149986
0.0149985
0.0149981
0.0149981
0.0149985
0.0149985
0.00797834
0.00749956
0.00749969
0.00749978
0.00749944
0.00749967
0.00749968
0.00749978
0.00749985
0.0150035
0.0149962
0.0150035
0.0149962
0.015003
0.0149978
0.015003
0.0149978
0.0150035
0.0149962
0.0150034
0.0149962
0.015003
0.0149978
0.015003
0.0149978
0.0150033
0.0149965
0.0150004
0.0149961
0.0150029
0.0149979
0.0149996
0.0149975
0.0149803
0.0148228
0.0126893
0.0142465
0.0149797
0.014826
0.0127187
0.014252
0.0106134
0.0134084
0.0145577
0.0149055
0.00945568
0.0127895
0.0148745
0.0143259
0.0149872
0.0149953
0.0149965
0.0150032
0.0149821
0.0149944
0.0150028
0.0149976
0.0149962
0.0150034
0.0149962
0.0150035
0.015003
0.0149978
0.015003
0.0149978
0.0149962
0.0150035
0.0150035
0.0149962
0.015003
0.0149978
0.015003
0.0149978
)
;
    }
    geometry_obstacle
    {
        type            fixedValue;
        value           nonuniform List<scalar> 
352
(
0
0
0
0
0
0
0
0
0.00746716
0.00749612
0.00750377
0.00749617
0.00750379
0.0074969
0.00750335
0.00747888
0.0075233
0.00751648
0.00747592
0.0074788
0.00471509
0.00493692
0.00746423
0.00749978
0.00749992
0.00169758
0.00181827
0.00169917
0.00181975
0.00749926
0.00749954
0.00749926
0.00749953
0.00749611
0.00750424
0.0075165
0.00747589
0.00747843
0.00471356
0.00493167
0.0074642
0.00749675
0.00749964
0.00221357
0.00221362
0.00749994
0.00748604
0.0074991
0.00749974
0.00749988
0.00749971
0.00749927
0.00749911
0.00749962
0.00749986
0.00749968
0.00749929
0.0048416
0.00657128
0.00177579
0.00180671
0.00177628
0.00180784
0.00749994
0.00749616
0.00750427
0.00749997
0.00749974
0.00749969
0.00751961
0.00749992
0.00750092
0.00749998
0.00750188
0.00749997
0.00751553
0.00749572
0.00735557
0.00747593
0.00746909
0.00727415
0.00226418
0.0022602
0.00751555
0.00749572
0.00735122
0.00747554
0.00746904
0.00727544
0.00747998
0.00752206
0.0075014
0.00749992
0.00749998
0.00750283
0.00749932
0.00749985
0.00749961
0.00749933
0.0074996
0.00749986
0.00749995
0.00749991
0.00749993
0.00749994
0.00749984
0.00750088
0.00749994
0.00750185
0.00749994
0.0074999
0.00675415
0.00492618
0.00749807
0.00749921
0.0074998
0.0074995
0.0074999
0.00749984
0.00750135
0.0074999
0.00750278
0.00483914
0.00657265
0.00674615
0.00491928
0.00738685
0.00693742
0.00746552
0.00747996
0.00746552
0.00746712
0.00747686
0.00747659
0.00545194
0.00545207
0.00738676
0.00693742
0.00749995
0.00748592
0.00752075
0.00749971
0.00742062
0.007024
0.0074768
0.00753205
0.00747693
0.0075319
0.00747679
0.00753729
0.00747692
0.00753719
0.00754054
0.00749689
0.00750298
0.00749994
0.00748586
0.00749971
0.00749995
0.00749997
0.00749969
0.0075447
0.00749993
0.00749998
0.00749989
0.00748781
0.00561083
0.00560658
0.00741974
0.00702287
0.00740431
0.00698205
0.00753894
0.00747888
0.00749995
0.0075207
0.00749998
0.00748411
0.00749565
0.00748776
0.00552806
0.00217092
0.00552786
0.00217103
0.00740428
0.00698179
0.00749991
0.00741923
0.00700931
0.00749862
0.00748565
0.00747738
0.00748585
0.00749998
0.00752068
0.00749949
0.00749992
0.00749984
0.00749896
0.00747743
0.00749862
0.00748559
0.00748273
0.00748944
0.00748925
0.00749985
0.0075242
0.00752412
0.0075101
0.00750683
0.00750673
0.00749896
0.00748279
0.00666116
0.00741835
0.0070079
0.00749991
0.00749994
0.00749969
0.00749986
0.00750472
0.00749055
0.00754649
0.00749015
0.00747873
0.00750469
0.0074959
0.00747844
0.00750735
0.00749997
0.00749984
0.00749948
0.00749976
0.00751015
0.00749977
0.00749996
0.00750972
0.00750959
0.00749995
0.00750069
0.00749996
0.00749997
0.00749997
0.00749999
0.00750146
0.00749998
0.00749989
0.00749997
0.00751871
0.00751847
0.0075203
0.00752182
0.00751497
0.0075076
0.00748149
0.00750626