/*--------------------------------*- C++ -*----------------------------------*\
  =========                 |
  \\      /  F ield         | OpenFOAM: The Open Source CFD Toolbox
   \\    /   O peration     | Website:  https://openfoam.org
    \\  /    A nd           | Version:  8
     \\/     M anipulation  |
\*---------------------------------------------------------------------------*/
FoamFile
{
    version     2.0;
    format      ascii;
    class       volScalarField;
    location    "0";
    object      thicknessFraction;
}
// * * * * * * * * * * * * * * * * * * * * * * * * * * * * * * * * * * * * * //

dimensions      [0 0 0 0 0 0 0];

internalField   uniform 0;

boundaryField
{
    up
    {
        type            empty;
    }
    down
    {
        type            empty;
    }
    defaultFaces
    {
        type            empty;
    }
    geometry_defaultFaces
    {
        type            fixedValue;
        value           nonuniform List<scalar> 0();
    }
    geometry_top
    {
        type            fixedValue;
        value           nonuniform List<scalar> 
2232
(
0.858737
1
0.999944
0.859427
0.999951
0.999937
0.999944
0.834308
0.858799
0.94625
0.982419
0.834012
0.99418
1.00287
0.997308
1.00344
0.994238
1.00287
0.997314
1.00344
0.994239
1.00287
0.997314
1.00344
0.99424
1.00287
0.997314
1.00344
0.99424
1.00287
0.997314
1.00344
0.99424
1.00287
0.997314
1.00344
0.99424
1.00287
0.997314
1.00344
0.99424
1.00287
0.997314
1.00344
0.99424
1.00287
0.997314
1.00344
0.99424
1.00287
0.997314
1.00344
0.99424
1.00287
0.997314
1.00344
0.99424
1.00287
0.997314
1.00344
0.99424
1.00287
0.997314
1.00344
0.99424
1.00287
0.997314
1.00344
0.99424
1.00287
0.997314
1.00344
0.99424
1.00287
0.997314
1.00344
0.99424
1.00287
0.997314
1.00344
0.99424
1.00287
0.997314
1.00344
0.99424
1.00287
0.997314
1.00344
0.99424
1.00287
0.997314
1.00344
0.99424
1.00287
0.997314
1.00344
0.99424
1.00287
0.997314
1.00344
0.99424
1.00287
0.997314
1.00344
0.99424
1.00287
0.997314
1.00344
0.99424
1.00287
0.997314
1.00344
0.99424
1.00287
0.997314
1.00344
0.99424
1.00287
0.997314
1.00344
0.99424
1.00287
0.997314
1.00344
0.99424
1.00287
0.997314
1.00344
0.99424
1.00287
0.997314
1.00344
0.99424
1.00287
0.997314
1.00344
0.99424
1.00287
0.997314
1.00344
0.99424
1.00287
0.997314
1.00344
0.99424
1.00287
0.997314
1.00344
0.99424
1.00287
0.997314
1.00344
0.99424
1.00287
0.997314
1.00344
0.99424
1.00287
0.997314
1.00344
0.99424
1.00287
0.997314
1.00344
0.99424
1.00287
0.997314
1.00344
0.99424
1.00287
0.997314
1.00344
0.99424
1.00287
0.997314
1.00344
0.99424
1.00287
0.997314
1.00344
0.99424
1.00287
0.997315
1.00344
0.994239
1.00287
0.997314
1.00344
0.994239
1.00575
0.999429
1.0036
0.999991
1.00575
0.99943
1.0036
0.999992
1.00287
0.997314
1.00344
0.99424
1.00575
0.99943
1.0036
0.999992
1.00575
0.99943
1.0036
0.999992
1.00287
0.997314
1.00344
0.99424
1.00575
0.99943
1.0036
0.999992
1.00575
0.99943
1.0036
0.999992
1.00287
0.997314
1.00344
0.99424
1.00575
0.99943
1.0036
0.999992
1.00575
0.99943
1.0036
0.999992
1.00287
0.997314
1.00344
0.99424
1.00575
0.99943
1.0036
0.999992
1.00575
0.99943
1.0036
0.999992
1.00287
0.997314
1.00344
0.99424
1.00575
0.99943
1.0036
0.999992
1.00575
0.99943
1.0036
0.999992
1.00287
0.997314
1.00344
0.99424
1.00575
0.99943
1.0036
0.999992
1.00575
0.99943
1.0036
0.999992
1.00287
0.997314
1.00344
0.99424
1.00575
0.99943
1.0036
0.999992
1.00575
0.99943
1.0036
0.999992
1.00287
0.997314
1.00344
0.99424
1.00575
0.99943
1.0036
0.999992
1.00575
0.99943
1.0036
0.999992
1.00287
0.997314
1.00344
0.99424
1.00575
0.99943
1.0036
0.999992
1.00575
0.99943
1.0036
0.999992
1.00287
0.997314
1.00344
0.99424
1.00575
0.99943
1.0036
0.999992
1.00575
0.99943
1.0036
0.999992
1.00287
0.997314
1.00344
0.99424
1.00575
0.99943
1.0036
0.999992
1.00575
0.99943
1.0036
0.999992
1.00287
0.997314
1.00344
0.99424
1.00575
0.99943
1.0036
0.999992
1.00575
0.99943
1.0036
0.999992
1.00287
0.997314
1.00344
0.99424
1.00575
0.99943
1.0036
0.999992
1.00575
0.99943
1.0036
0.999992
1.00287
0.997314
1.00344
0.99424
1.00575
0.99943
1.0036
0.999992
1.00575
0.99943
1.0036
0.999992
1.00287
0.997314
1.00344
0.99424
1.00575
0.99943
1.0036
0.999992
1.00575
0.99943
1.0036
0.999992
1.00287
0.997314
1.00344
0.99424
1.00575
0.99943
1.0036
0.999992
1.00575
0.99943
1.0036
0.999992
1.00287
0.997314
1.00344
0.99424
1.00575
0.99943
1.0036
0.999992
1.00575
0.99943
1.0036
0.999992
1.00287
0.997314
1.00344
0.99424
1.00575
0.99943
1.0036
0.999992
1.00575
0.99943
1.0036
0.999992
1.00287
0.997314
1.00344
0.99424
1.00575
0.99943
1.0036
0.999992
1.00575
0.99943
1.0036
0.999992
1.00287
0.997314
1.00344
0.99424
1.00575
0.99943
1.0036
0.999992
1.00575
0.99943
1.0036
0.999992
1.00287
0.997314
1.00344
0.99424
1.00575
0.99943
1.0036
0.999992
1.00575
0.99943
1.0036
0.999992
1.00287
0.997314
1.00344
0.99424
1.00575
0.99943
1.0036
0.999992
1.00575
0.99943
1.0036
0.999992
1.00287
0.997314
1.00344
0.99424
1.00575
0.99943
1.0036
0.999992
1.00575
0.99943
1.0036
0.999992
1.00287
0.997314
1.00344
0.99424
1.00575
0.99943
1.0036
0.999992
1.00575
0.99943
1.0036
0.999992
1.00287
0.997314
1.00344
0.99424
1.00575
0.99943
1.0036
0.999992
1.00575
0.99943
1.0036
0.999992
1.00287
0.997314
1.00344
0.99424
1.00575
0.99943
1.0036
0.999992
1.00575
0.99943
1.0036
0.999992
1.00287
0.997314
1.00344
0.99424
1.00575
0.99943
1.0036
0.999992
1.00575
0.99943
1.0036
0.999992
1.00287
0.997314
1.00344
0.99424
1.00575
0.99943
1.0036
0.999992
1.00575
0.99943
1.0036
0.999992
1.00287
0.997314
1.00344
0.99424
1.00575
0.99943
1.0036
0.999992
1.00575
0.99943
1.0036
0.999992
1.00287
0.997314
1.00344
0.99424
1.00575
0.99943
1.0036
0.999992
1.00575
0.99943
1.0036
0.999992
1.00287
0.997314
1.00344
0.99424
1.00575
0.99943
1.0036
0.999992
1.00575
0.99943
1.0036
0.999992
1.00287
0.997314
1.00344
0.99424
1.00575
0.99943
1.0036
0.999992
1.00575
0.99943
1.0036
0.999992
1.00287
0.997314
1.00344
0.99424
1.00575
0.99943
1.0036
0.999992
1.00575
0.99943
1.0036
0.999992
1.00287
0.997314
1.00344
0.99424
1.00575
0.99943
1.0036
0.999992
1.00575
0.99943
1.0036
0.999992
1.00287
0.997314
1.00344
0.99424
1.00575
0.99943
1.0036
0.999992
1.00575
0.99943
1.0036
0.999992
1.00287
0.997314
1.00344
0.99424
1.00575
0.99943
1.0036
0.999992
1.00575
0.99943
1.0036
0.999992
1.00287
0.997314
1.00344
0.99424
1.00575
0.99943
1.0036
0.999992
1.00575
0.99943
1.0036
0.999992
1.00287
0.997314
1.00344
0.99424
1.00575
0.99943
1.0036
0.999992
1.00575
0.99943
1.0036
0.999992
1.00287
0.997314
1.00344
0.99424
1.00575
0.99943
1.0036
0.999992
1.00575
0.99943
1.0036
0.999992
1.00287
0.997314
1.00344
0.99424
1.00575
0.99943
1.0036
0.999992
1.00575
0.99943
1.0036
0.999992
1.00287
0.997315
1.00344
0.99424
1.00575
0.99943
1.0036
0.999992
1.00575
0.999429
1.0036
0.999992
1.00575
0.999429
1.0036
0.999992
1.00575
0.999392
1.00358
0.99999
0.953423
0.833171
0.839726
0.942801
1.00287
0.997034
1.00325
0.994177
1.00287
0.997314
1.00344
0.99424
1.00287
0.997314
1.00344
0.99424
1.00287
0.997314
1.00344
0.99424
1.00287
0.997314
1.00344
0.99424
1.00287
0.997314
1.00344
0.99424
1.00287
0.997314
1.00344
0.99424
1.00287
0.997314
1.00344
0.99424
1.00287
0.997314
1.00344
0.99424
1.00287
0.997314
1.00344
0.99424
1.00287
0.997314
1.00344
0.99424
1.00287
0.997314
1.00344
0.99424
1.00287
0.997314
1.00344
0.99424
1.00287
0.997314
1.00344
0.99424
1.00287
0.997314
1.00344
0.99424
1.00287
0.997314
1.00344
0.99424
1.00287
0.997314
1.00344
0.99424
1.00287
0.997314
1.00344
0.99424
1.00287
0.997314
1.00344
0.99424
1.00287
0.997314
1.00344
0.99424
1.00287
0.997314
1.00344
0.994239
1.00287
0.997312
1.00344
0.994232
0.999854
0.859872
0.860711
0.999973
0.99988
0.858774
0.859743
1
0.991638
0.995214
1.00164
0.982264
0.954882
0.832614
0.839081
0.945719
0.99432
0.997278
1.00174
0.987628
1.00288
0.997311
1.00344
0.994225
1.00576
0.999151
1.00338
0.999963
1.00576
0.999429
1.0036
0.999989
1.00287
0.997314
1.00344
0.99424
1.00575
0.99943
1.0036
0.999992
1.00575
0.99943
1.0036
0.999992
1.00287
0.997314
1.00344
0.99424
1.00575
0.99943
1.0036
0.999992
1.00575
0.99943
1.0036
0.999992
1.00287
0.997314
1.00344
0.99424
1.00575
0.99943
1.0036
0.999992
1.00575
0.99943
1.0036
0.999992
1.00287
0.997314
1.00344
0.99424
1.00575
0.99943
1.0036
0.999992
1.00575
0.99943
1.0036
0.999992
1.00287
0.997314
1.00344
0.99424
1.00575
0.99943
1.0036
0.999992
1.00575
0.99943
1.0036
0.999992
1.00287
0.997314
1.00344
0.99424
1.00575
0.99943
1.0036
0.999992
1.00575
0.99943
1.0036
0.999992
1.00287
0.997314
1.00344
0.99424
1.00575
0.99943
1.0036
0.999992
1.00575
0.99943
1.0036
0.999992
1.00287
0.997314
1.00344
0.99424
1.00575
0.99943
1.0036
0.999992
1.00575
0.99943
1.0036
0.999992
1.00287
0.997314
1.00344
0.99424
1.00575
0.99943
1.0036
0.999992
1.00575
0.99943
1.0036
0.999992
1.00287
0.997314
1.00344
0.99424
1.00575
0.99943
1.0036
0.999992
1.00575
0.99943
1.0036
0.999992
1.00287
0.997314
1.00344
0.99424
1.00575
0.99943
1.0036
0.999992
1.00575
0.99943
1.0036
0.999992
1.00287
0.997314
1.00344
0.99424
1.00575
0.99943
1.0036
0.999992
1.00575
0.99943
1.0036
0.999992
1.00287
0.997314
1.00344
0.99424
1.00575
0.99943
1.0036
0.999992
1.00575
0.99943
1.0036
0.999992
1.00287
0.997314
1.00344
0.99424
1.00575
0.99943
1.0036
0.999992
1.00575
0.99943
1.0036
0.999992
1.00287
0.997314
1.00344
0.99424
1.00575
0.99943
1.0036
0.999992
1.00575
0.99943
1.0036
0.999992
1.00287
0.997314
1.00344
0.99424
1.00575
0.99943
1.0036
0.999992
1.00575
0.99943
1.0036
0.999992
1.00287
0.997314
1.00344
0.99424
1.00575
0.99943
1.0036
0.999992
1.00575
0.99943
1.0036
0.999992
1.00287
0.997314
1.00344
0.99424
1.00575
0.99943
1.0036
0.999992
1.00575
0.99943
1.0036
0.999992
1.00287
0.997314
1.00344
0.99424
1.00575
0.99943
1.0036
0.999992
1.00575
0.99943
1.0036
0.999992
1.00287
0.997313
1.00344
0.994239
1.00575
0.99943
1.0036
0.999992
1.00575
0.999431
1.0036
0.999992
1.00038
1.00401
1.00344
0.997307
1.00575
0.99943
1.0036
0.999991
0.998868
1.00144
1.0036
0.999429
0.999857
0.85988
0.860701
0.999973
0.999882
0.859719
1
0.837775
0.952349
0.944634
0.991651
0.995208
1.00164
0.982261
1.00287
0.997031
1.00325
0.999861
0.9999
0.999912
0.999916
0.999998
0.999935
0.999886
0.999946
0.999957
0.999956
1.00003
0.999974
1.00287
0.997314
1.00344
0.994236
1.00109
0.997002
1.00326
0.992099
0.862203
0.836012
0.840391
0.859338
1.00288
0.997281
1.00344
0.994225
0.991779
0.946207
0.952904
0.982389
0.99447
0.947538
0.952633
0.98777
0.999996
0.999926
0.861969
0.834399
0.838648
0.858871
1
0.999999
0.999978
0.999972
0.999945
0.999952
0.999939
0.999946
0.991772
0.952904
0.999996
0.999928
0.862216
0.836117
0.840404
0.861902
0.838576
0.999992
0.999964
0.999955
0.999937
0.99991
0.999923
0.999998
0.999977
0.999971
1.00287
0.997294
1.00344
0.994231
1.0025
0.997023
1.00325
0.994955
0.994442
0.947501
0.952606
0.987759
1.00253
0.999137
1.0034
0.995026
1.00287
0.997332
1.00345
0.994235
0.834749
0.837497
0.952464
0.946876
1.00576
0.999153
1.00338
0.999962
1.00286
0.996555
1.00215
0.994266
1.00287
0.997319
1.00344
0.994242
1.00287
0.997314
1.00344
0.99424
1.00287
0.997314
1.00344
0.99424
1.00287
0.997314
1.00344
0.99424
1.00287
0.997314
1.00344
0.99424
1.00287
0.997314
1.00344
0.99424
1.00287
0.997314
1.00344
0.99424
1.00287
0.997314
1.00344
0.99424
1.00287
0.997314
1.00344
0.99424
1.00287
0.997314
1.00344
0.99424
1.00287
0.997314
1.00344
0.99424
1.00287
0.997314
1.00344
0.99424
1.00287
0.997314
1.00344
0.99424
1.00287
0.997314
1.00344
0.99424
1.00287
0.997314
1.00344
0.99424
1.00287
0.997314
1.00344
0.99424
1.00287
0.997314
1.00344
0.99424
1.00287
0.997314
1.00344
0.994239
1.00287
0.997308
1.00344
0.994238
1.00287
0.997314
1.00344
0.994239
1.00287
0.997314
1.00344
0.99424
1.00287
0.997314
1.00344
0.99424
1.00287
0.997314
1.00344
0.99424
1.00287
0.997314
1.00344
0.99424
1.00287
0.997314
1.00344
0.99424
1.00287
0.997314
1.00344
0.99424
1.00287
0.997314
1.00344
0.99424
1.00287
0.997314
1.00344
0.99424
1.00287
0.997314
1.00344
0.99424
1.00287
0.997314
1.00344
0.99424
1.00287
0.997314
1.00344
0.99424
1.00287
0.997314
1.00344
0.99424
1.00287
0.997314
1.00344
0.99424
1.00287
0.997314
1.00344
0.99424
1.00287
0.997314
1.00344
0.99424
1.00287
0.997314
1.00344
0.99424
1.00287
0.997314
1.00344
0.99424
1.00287
0.997314
1.00344
0.99424
1.00287
0.997314
1.00344
0.99424
1.00287
0.997314
1.00344
0.99424
1.00287
0.997314
1.00344
0.99424
1.00287
0.997314
1.00344
0.99424
1.00287
0.997314
1.00344
0.994239
1.00575
0.999429
1.0036
0.999991
1.00575
0.99943
1.0036
0.999992
1.00287
0.997314
1.00344
0.99424
1.00575
0.99943
1.0036
0.999992
1.00575
0.99943
1.0036
0.999992
1.00287
0.997314
1.00344
0.99424
1.00575
0.99943
1.0036
0.999992
1.00575
0.99943
1.0036
0.999992
1.00287
0.997314
1.00344
0.99424
1.00575
0.99943
1.0036
0.999992
1.00575
0.99943
1.0036
0.999992
1.00287
0.997314
1.00344
0.99424
1.00575
0.99943
1.0036
0.999992
1.00575
0.99943
1.0036
0.999992
1.00287
0.997314
1.00344
0.99424
1.00575
0.99943
1.0036
0.999992
1.00575
0.99943
1.0036
0.999992
1.00287
0.997314
1.00344
0.99424
1.00575
0.99943
1.0036
0.999992
1.00575
0.99943
1.0036
0.999992
1.00287
0.997314
1.00344
0.99424
1.00575
0.99943
1.0036
0.999992
1.00575
0.99943
1.0036
0.999992
1.00287
0.997314
1.00344
0.99424
1.00575
0.99943
1.0036
0.999992
1.00575
0.99943
1.0036
0.999992
1.00287
0.997314
1.00344
0.99424
1.00575
0.99943
1.0036
0.999992
1.00575
0.99943
1.0036
0.999992
1.00287
0.997314
1.00344
0.99424
1.00575
0.99943
1.0036
0.999992
1.00575
0.99943
1.0036
0.999992
1.00287
0.997314
1.00344
0.99424
1.00575
0.99943
1.0036
0.999992
1.00575
0.99943
1.0036
0.999992
1.00287
0.997314
1.00344
0.99424
1.00575
0.99943
1.0036
0.999992
1.00575
0.99943
1.0036
0.999992
1.00287
0.997314
1.00344
0.99424
1.00575
0.99943
1.0036
0.999992
1.00575
0.99943
1.0036
0.999992
1.00287
0.997314
1.00344
0.99424
1.00575
0.99943
1.0036
0.999992
1.00575
0.99943
1.0036
0.999992
1.00287
0.997314
1.00344
0.99424
1.00575
0.99943
1.0036
0.999992
1.00575
0.99943
1.0036
0.999992
1.00287
0.997314
1.00344
0.99424
1.00575
0.99943
1.0036
0.999992
1.00575
0.99943
1.0036
0.999992
1.00287
0.997314
1.00344
0.99424
1.00575
0.99943
1.0036
0.999992
1.00575
0.99943
1.0036
0.999992
1.00287
0.997314
1.00344
0.99424
1.00575
0.99943
1.0036
0.999992
1.00575
0.99943
1.0036
0.999992
1.00287
0.997314
1.00344
0.99424
1.00575
0.99943
1.0036
0.999992
1.00575
0.99943
1.0036
0.999992
1.00287
0.997314
1.00344
0.99424
1.00575
0.99943
1.0036
0.999992
1.00575
0.99943
1.0036
0.999992
1.00287
0.997314
1.00344
0.99424
1.00575
0.99943
1.0036
0.999992
1.00575
0.99943
1.0036
0.999992
1.00287
0.997314
1.00344
0.99424
1.00575
0.99943
1.0036
0.999992
1.00575
0.99943
1.0036
0.999992
1.00287
0.997314
1.00344
0.99424
1.00575
0.99943
1.0036
0.999992
1.00575
0.99943
1.0036
0.999992
1.00575
0.99943
1.0036
0.999992
1.00576
0.9994
1.00359
0.99999
1.00397
0.999145
1.00341
0.997858
0.994328
0.997278
1.00175
0.987615
1.00575
0.999417
1.00359
0.999989
1.00286
0.997324
1.00344
0.994256
1.00572
1.00021
1.00487
0.999991
1.00573
0.999426
1.00359
0.999991
1.00287
0.997315
1.00344
0.99424
1.00575
0.999427
1.00359
0.999992
1.00575
0.99943
1.0036
0.999992
1.00287
0.997314
1.00344
0.99424
1.00575
0.99943
1.0036
0.999992
1.00575
0.99943
1.0036
0.999992
1.00287
0.997314
1.00344
0.99424
1.00575
0.99943
1.0036
0.999992
1.00575
0.99943
1.0036
0.999992
1.00287
0.997314
1.00344
0.99424
1.00575
0.99943
1.0036
0.999992
1.00575
0.99943
1.0036
0.999992
1.00287
0.997314
1.00344
0.99424
1.00575
0.99943
1.0036
0.999992
1.00575
0.99943
1.0036
0.999992
1.00287
0.997314
1.00344
0.99424
1.00575
0.99943
1.0036
0.999992
1.00575
0.99943
1.0036
0.999992
1.00287
0.997314
1.00344
0.99424
1.00575
0.99943
1.0036
0.999992
1.00575
0.99943
1.0036
0.999992
1.00287
0.997314
1.00344
0.99424
1.00575
0.99943
1.0036
0.999992
1.00575
0.99943
1.0036
0.999992
1.00287
0.997314
1.00344
0.99424
1.00575
0.99943
1.0036
0.999992
1.00575
0.99943
1.0036
0.999992
1.00287
0.997314
1.00344
0.99424
1.00575
0.99943
1.0036
0.999992
1.00575
0.99943
1.0036
0.999992
1.00287
0.997314
1.00344
0.99424
1.00575
0.99943
1.0036
0.999992
1.00575
0.99943
1.0036
0.999992
1.00287
0.997314
1.00344
0.99424
1.00575
0.99943
1.0036
0.999992
1.00575
0.99943
1.0036
0.999992
1.00287
0.997314
1.00344
0.99424
1.00575
0.99943
1.0036
0.999992
1.00575
0.99943
1.0036
0.999992
1.00287
0.997314
1.00344
0.99424
1.00575
0.99943
1.0036
0.999992
1.00575
0.99943
1.0036
0.999992
1.00287
0.997314
1.00344
0.99424
1.00575
0.99943
1.0036
0.999992
1.00575
0.99943
1.0036
0.999992
1.00287
0.997314
1.00344
0.99424
1.00575
0.99943
1.0036
0.999992
1.00575
0.99943
1.0036
0.999992
1.00287
0.997314
1.00344
0.994239
1.00575
0.99943
1.0036
0.999992
1.00575
0.99943
1.0036
0.999992
1.00287
0.997308
1.00344
0.994238
1.00575
0.99943
1.0036
0.999992
1.00575
0.999429
1.0036
0.999991
0.999992
0.999964
0.999954
0.999935
0.999908
0.999922
1.00038
1.00401
1.00344
0.997307
1.00287
0.997313
1.00344
0.994239
1.00287
0.997314
1.00344
0.99424
1.00287
0.997314
1.00344
0.99424
1.00287
0.997314
1.00344
0.99424
1.00287
0.997314
1.00344
0.99424
1.00287
0.997314
1.00344
0.99424
1.00287
0.997314
1.00344
0.99424
1.00287
0.997314
1.00344
0.99424
1.00287
0.997314
1.00344
0.99424
1.00287
0.997314
1.00344
0.99424
1.00287
0.997314
1.00344
0.99424
1.00287
0.997314
1.00344
0.99424
1.00287
0.997314
1.00344
0.99424
1.00287
0.997314
1.00344
0.99424
1.00287
0.997314
1.00344
0.99424
1.00287
0.997314
1.00344
0.99424
1.00287
0.997314
1.00344
0.99424
1.00287
0.997314
1.00344
0.994239
1.00287
0.997312
1.00344
0.994232
1.00287
0.997312
1.00344
0.994232
0.998868
1.00144
1.0036
0.999429
1.00575
0.99943
1.0036
0.999991
1.00287
0.997314
1.00344
0.994239
1.00575
0.999431
1.0036
0.999992
1.00575
0.99943
1.0036
0.999992
1.00287
0.997314
1.00344
0.99424
1.00575
0.99943
1.0036
0.999992
1.00575
0.99943
1.0036
0.999992
1.00287
0.997314
1.00344
0.99424
1.00575
0.99943
1.0036
0.999992
1.00575
0.99943
1.0036
0.999992
1.00287
0.997314
1.00344
0.99424
1.00575
0.99943
1.0036
0.999992
1.00575
0.99943
1.0036
0.999992
1.00287
0.997314
1.00344
0.99424
1.00575
0.99943
1.0036
0.999992
1.00575
0.99943
1.0036
0.999992
1.00287
0.997314
1.00344
0.99424
1.00575
0.99943
1.0036
0.999992
1.00575
0.99943
1.0036
0.999992
1.00287
0.997314
1.00344
0.99424
1.00575
0.99943
1.0036
0.999992
1.00575
0.99943
1.0036
0.999992
1.00287
0.997314
1.00344
0.99424
1.00575
0.99943
1.0036
0.999992
1.00575
0.99943
1.0036
0.999992
1.00287
0.997314
1.00344
0.99424
1.00575
0.99943
1.0036
0.999992
1.00575
0.99943
1.0036
0.999992
1.00287
0.997314
1.00344
0.99424
1.00575
0.99943
1.0036
0.999992
1.00575
0.99943
1.0036
0.999992
1.00287
0.997314
1.00344
0.99424
1.00575
0.99943
1.0036
0.999992
1.00575
0.99943
1.0036
0.999992
1.00287
0.997314
1.00344
0.99424
1.00575
0.99943
1.0036
0.999992
1.00575
0.99943
1.0036
0.999992
1.00287
0.997314
1.00344
0.99424
1.00575
0.99943
1.0036
0.999992
1.00575
0.99943
1.0036
0.999992
1.00287
0.997314
1.00344
0.99424
1.00575
0.99943
1.0036
0.999992
1.00575
0.99943
1.0036
0.999992
1.00287
0.997314
1.00344
0.99424
1.00575
0.99943
1.0036
0.999992
1.00575
0.99943
1.0036
0.999992
1.00287
0.997314
1.00344
0.99424
1.00575
0.99943
1.0036
0.999992
1.00575
0.99943
1.0036
0.999992
1.00287
0.997314
1.00344
0.99424
1.00575
0.99943
1.0036
0.999992
1.00575
0.99943
1.0036
0.999992
1.00287
0.997313
1.00344
0.994239
1.00575
0.99943
1.0036
0.999992
1.00575
0.999431
1.0036
0.999992
1.00038
1.00401
1.00344
0.997307
1.00575
0.99943
1.0036
0.999991
0.998868
1.00144
1.0036
0.999429
0.99986
0.999898
0.999912
0.999915
0.999998
0.999934
0.999886
0.999944
0.999957
0.999954
1.00003
0.999974
)
;
    }
    geometry_inlet
    {
        type            fixedValue;
        value           nonuniform List<scalar> 
186
(
1.00291
0.999367
0.860324
0.99757
1.00232
0.999256
0.860599
0.997578
0.724412
0.999799
0.717247
1.0072
0.721887
0.999913
0.716855
1.0036
0.734169
0.847711
0.850583
0.872526
0.99018
0.953818
0.955199
0.989353
0.735785
0.846234
0.849477
0.875758
1.00507
1.00173
1.00356
1.00199
0.996901
1.00204
0.998207
0.995104
0.999117
1.00094
1.00157
1.0034
1.01441
1.00162
1.00329
1.00535
1.00172
1.00294
1.00225
0.996897
1.00174
0.997609
0.995096
0.998212
1.00121
1.00075
1.00177
1.0072
1.00081
1.00165
0.999999
0.999978
0.99998
0.999998
0.998385
0.99976
0.999798
0.998168
0.990108
0.952999
0.954422
0.989208
0.998367
0.999752
0.999793
0.998133
1
1
1
1
0.999999
0.999976
0.999978
0.999998
1
1
1
1
1
1
1
1
1
1
1
1
1
1
1
1
0.999999
1
1
0.999998
0.989964
0.998125
0.998327
0.988791
0.999972
1.00287
0.999963
1.00286
0.863371
0.86852
0.99991
0.999944
0.996993
0.999934
1
1
1
1
1
1
1
1
1
1
1
1
1
1
1
1
1
1
1
1
1
1
1
1
1
1
1
1
1
1
1
1
1
1
1
1
0.999981
0.99977
0.999788
0.999975
0.999999
1
1
0.999998
0.99998
0.999757
0.999775
0.999975
0.954211
0.842025
0.846282
0.950556
0.989958
0.998091
0.998303
0.988779
0.954288
0.841443
0.845198
0.95071
0.999985
1.00288
0.999976
1.00287
0.862544
0.867198
0.99991
0.999944
0.996998
0.999937
)
;
    }
    geometry_outlet
    {
        type            fixedValue;
        value           nonuniform List<scalar> 
174
(
1.00027
1.00027
1.00033
1.00033
1.00027
1.00027
1.00033
1.00032
1.00025
1.00024
1.0003
1.00028
0.990478
0.954588
0.990584
0.95477
0.883548
0.96813
0.862918
0.960402
1.00014
1.00024
1.00011
1.00028
1.00027
1.00027
1.00032
1.00033
1.00027
1.00027
1.00033
1.00033
0.782662
0.99999
0.997898
0.999996
0.997886
0.999876
0.999876
0.999903
0.999903
0.999876
0.999877
0.999903
0.999904
0.999883
0.999653
0.999907
0.999655
0.997873
0.838836
0.997911
0.840776
0.861897
0.863848
0.728022
0.99409
0.872966
0.989783
1.00157
1.03633
1.00157
1.00106
1
0.999924
1
0.999918
1.00002
0.999955
0.999973
1.00002
0.868464
0.999952
0.999919
0.999963
0.999901
0.999996
0.999982
0.99998
0.999999
0.866359
0.999942
0.999958
0.999949
0.999924
0.999971
0.999962
0.999966
0.999961
0.999091
0.999885
0.998232
0.999907
0.999877
0.999876
0.999904
0.999903
0.999876
0.999876
0.999903
0.999903
0.911811
0.999942
0.999959
0.99997
0.999925
0.999956
0.999958
0.999971
0.99998
1.00023
0.999747
1.00023
0.999747
1.0002
0.999852
1.0002
0.999852
1.00023
0.999748
1.00023
0.999749
1.0002
0.999852
1.0002
0.999853
1.00022
0.999764
1.00003
0.99974
1.00019
0.999859
0.999973
0.999834
0.998686
0.988187
0.845953
0.949768
0.998647
0.988399
0.847913
0.950133
0.808642
0.893896
0.970514
0.993701
0.900541
0.852637
0.991634
0.955058
0.999149
0.999688
0.999767
1.00022
0.998805
0.999629
1.00019
0.999841
0.999749
1.00023
0.999747
1.00023
1.0002
0.999853
1.0002
0.999852
0.999747
1.00023
1.00023
0.999747
1.0002
0.999852
1.0002
0.999852
)
;
    }
    geometry_obstacle
    {
        type            fixedValue;
        value           nonuniform List<scalar> 
352
(
0
0
0
0
0
0
0
0
0.995621
0.999483
1.0005
0.999489
1.00051
0.999587
1.00045
0.997184
1.00311
1.0022
0.99679
0.997173
0.628679
0.658256
0.995231
0.99997
0.99999
0.226345
0.242436
0.226556
0.242633
0.999901
0.999939
0.999901
0.999938
0.999482
1.00056
1.0022
0.996786
0.997124
0.628475
0.657556
0.995227
0.999566
0.999952
0.295143
0.29515
0.999991
0.998139
0.99988
0.999966
0.999985
0.999962
0.999902
0.999881
0.999949
0.999981
0.999957
0.999905
0.645547
0.87617
0.236771
0.240895
0.236837
0.241046
0.999991
0.999488
1.00057
0.999996
0.999966
0.999958
1.00261
0.99999
1.00012
0.999998
1.00025
0.999995
1.00207
0.99943
0.980743
0.996791
0.995878
0.969887
0.301891
0.30136
1.00207
0.999429
0.980163
0.996738
0.995872
0.970059
0.997331
1.00294
1.00019
0.99999
0.999997
1.00038
0.99991
0.99998
0.999948
0.99991
0.999947
0.999981
0.999993
0.999987
0.999991
0.999991
0.999979
1.00012
0.999992
1.00025
0.999992
0.999987
0.900553
0.656824
0.999743
0.999894
0.999973
0.999933
0.999987
0.999979
1.00018
0.999987
1.00037
0.645219
0.876353
0.899487
0.655904
0.984913
0.924989
0.995403
0.997328
0.995403
0.995616
0.996915
0.996879
0.726926
0.726943
0.984901
0.92499
0.999994
0.998123
1.00277
0.999961
0.989416
0.936534
0.996907
1.00427
0.996924
1.00425
0.996905
1.00497
0.996923
1.00496
1.00541
0.999586
1.0004
0.999992
0.998115
0.999961
0.999993
0.999996
0.999958
1.00596
0.999991
0.999997
0.999986
0.998375
0.74811
0.747544
0.989299
0.936382
0.987242
0.93094
1.00519
0.997184
0.999994
1.00276
0.999998
0.997882
0.99942
0.998368
0.737074
0.289457
0.737047
0.28947
0.987237
0.930905
0.999988
0.989231
0.934574
0.999816
0.998086
0.996984
0.998113
0.999998
1.00276
0.999932
0.999989
0.999978
0.999862
0.99699
0.999816
0.998078
0.997698
0.998592
0.998566
0.99998
1.00323
1.00322
1.00135
1.00091
1.0009
0.999862
0.997706
0.888155
0.989113
0.934387
0.999988
0.999992
0.999958
0.999982
1.00063
0.998741
1.0062
0.998687
0.997164
1.00063
0.999453
0.997125
1.00098
0.999996
0.999979
0.99993
0.999968
1.00135
0.999969
0.999994
1.0013
1.00128
0.999993
1.00009
0.999994
0.999996
0.999996
0.999998
1.00019
0.999997
0.999985
0.999996
1.00249
1.00246
1.00271
1.00291
1.002
1.00101
0.997532
1.00083
0.99957
0.999993
1.0001
1.00265
1.00206
1.00174
1.0002
0.999995
1.0002
0.997336
0.999907
0.98087
0.999966
0.999979
0.97536
0.745735
0.302422
0.745134
0.301891
0.999989
0.999965
1.0025
1.00247
1.00117
1.00296
1.00167
1.00067
0.997533
1.00054
0.999995
0.999606
1.00004
1.00235
1.00137
1.00115
1.00056
0.999996
1.00048
0.997333
0.999907
0.981034
0.999982
0.976189
1.00096
0.999532
0.999992
1.00287
1.00195
0.999993
1.00014
0.999994
0.999996
0.999996
0.999998
1.00029
0.999997
0.999982
0.999981
0.999981
0.99787
0.996728
0.996905
0.999996
0.999983
0.999968
0.999983
0.999986
0.99998
0.999986
0.999994
0.99998
0.999968
0.999983
0.999981
0.999965
0.999985
0.900393
0.998294
1.00242
0.999873
1.00261
0.999982
0.999979
0.999979
0.888939
0.900019
0.998291
1.0024
0.999726
0.997191
0.997236
1.00259
0.999917
0.999979
0.99999
0.999965
)
;
    }
}


// ************************************************************************* //
